! Touchstone file exported from HFSS 2020.1.0
!        File:           D:/HFSS/BPF/test1.aedt
!        Generated:      9:42:07 %x4E0B%x5348  9%x6708 22, 2020
!        Design:         whole
!        Project:        test1
!        Setup:          Setup1
!        Solution:       Sweep
!
! Variables:
!        a = 3.1mm
!        b = 1.55mm
!        cavity_s = 0.2mm
!        cavity_w = 1.37mm
!        cavity_w1 = 1.21mm
!        l1 = 2.26mm
!        l2 = 2.26mm
!        l_source = 1mm
!
!Data is not renormalized
# GHZ S MA
! Terminal data exported
! Port[1] = 1
! Port[2] = 2
62                             0.999999046577264 59.6580511517746 0.00138088542783353 149.644647148459 0.00138088542783365 149.644647148459 0.999999046577263 59.6312431451443 
62.02                          0.999999064228614 59.5467355309398 0.00139138395514149 149.533293035302 0.00139138395514133 149.533293035295 0.999999064188099 59.5198876435464 
62.04                          0.999999080884812 59.4354079136465 0.00140197626611538 149.421927429302 0.00140197626611482 149.421927429295 0.999999080804743 59.4085200533509 
62.06                          0.999999096551673 59.3240678640411 0.00141266334764576 149.310549883885 0.00141266334764498 149.310549883873 0.999999096432998 59.2971399380824 
62.08                          0.999999111234831 59.2127149439989 0.00142344619870909 149.199159950377 0.00142344619870801 149.199159950358 0.999999111078485 59.1857468589892 
62.1                           0.999999124939738 59.1013487130962 0.00143432583053817 149.087757177919 0.00143432583053672 149.087757177902 0.999999124746642 59.0743403750158 
62.12                          0.999999137671663 58.9899687285816 0.00144530326679441 148.976341113509 0.00144530326679286 148.976341113476 0.999999137442725 58.9629200427739 
62.14                          0.999999149435689 58.8785745453472 0.00145637954374466 148.864911301869 0.00145637954374265 148.864911301841 0.999999149171806 58.851485416513  
62.16                          0.999999160236715 58.7671657158994 0.00146755571043751 148.753467285565 0.00146755571043534 148.75346728553  0.99999915993877 58.7400360480921 
62.18                          0.999999170079451 58.6557417903289 0.00147883282888713 148.64200860482  0.0014788328288847 148.64200860478  0.999999169748313 58.6285714869492 
62.2                           0.99999917896842 58.5443023162811 0.00149021197425571 148.53053479758  0.00149021197425312 148.530534797532 0.999999178604947 58.5170912800715 
62.22                          0.999999186907951 58.4328468389257 0.00150169423504186 148.419045399426 0.00150169423503895 148.419045399381 0.99999918651299 58.4055949719652 
62.24                          0.999999193902186 58.3213749009262 0.00151328071326958 148.307539943611 0.00151328071326641 148.307539943559 0.999999193476569 58.2940821046246 
62.26                          0.999999199955069 58.2098860424082 0.00152497252468295 148.196017960945 0.00152497252467957 148.196017960892 0.999999199499619 58.1825522175006 
62.28                          0.999999205070355 58.0983798009285 0.00153677079894186 148.084478979809 0.00153677079893811 148.084478979766 0.999999204585881 58.0710048474699 
62.3                           0.999999209251597 57.986855711443  0.00154867667982165 147.972922526141 0.00154867667981774 147.972922526085 0.999999208738896 57.9594395288027 
62.32                          0.999999212502151 57.8753133062747 0.00156069132541664 147.86134812333  0.00156069132541249 147.861348123278 0.999999211962009 57.8478557931303 
62.34                          0.999999214825175 57.7637521150808 0.00157281590834572 147.749755292266 0.00157281590834127 147.749755292207 0.999999214258367 57.7362531694124 
62.36                          0.999999216223622 57.6521716648198 0.00158505161596224 147.638143551232 0.00158505161595784 147.638143551156 0.999999215630911 57.6246311839043 
62.38                          0.999999216700243 57.5405714797178 0.00159739965056758 147.526512415918 0.00159739965056275 147.526512415861 0.99999921608238 57.5129893601231 
62.4                           0.999999216257584 57.4289510812352 0.00160986122962663 147.414861399384 0.00160986122962168 147.414861399315 0.999999215615309 57.401327218814  
62.42                          0.999999214897979 57.3173099880316 0.00162243758598926 147.303190011974 0.00162243758598421 147.303190011903 0.999999214232022 57.2896442779153 
62.44                          0.999999212623557 57.2056477159317 0.00163512996811296 147.191497761351 0.00163512996810747 147.191497761285 0.999999211934635 57.1779400525247 
62.46                          0.99999920943623 57.09396377789   0.00164793964029102 147.079784152405 0.00164793964028529 147.079784152339 0.999999208725051 57.0662140548629 
62.48                          0.999999205337699 56.982257683955  0.00166086788288362 146.968048687238 0.00166086788287792 146.968048687164 0.99999920460496 56.9544657942388 
62.5                           0.999999200329446 56.870528941233  0.00167391599255298 146.856290865129 0.00167391599254704 146.856290865053 0.999999199575832 56.8426947770127 
62.52                          0.999999194412736 56.7587770538522 0.00168708528250219 146.744510182482 0.00168708528249596 146.744510182412 0.999999193638922 56.7309005065602 
62.54                          0.999999187588609 56.6470015229249 0.00170037708271851 146.632706132799 0.00170037708271204 146.632706132732 0.99999918679526 56.6190824832348 
62.56                          0.999999179857882 56.5352018465109 0.00171379274021982 146.520878206661 0.00171379274021344 146.520878206576 0.999999179045652 56.5072402043307 
62.58                          0.999999171221148 56.4233775195784 0.00172733361930734 146.40902589162  0.00172733361930069 146.409025891543 0.999999170390681 56.3953731640442 
62.6                           0.999999161678765 56.3115280339669 0.00174100110181885 146.297148672245 0.00174100110181203 146.297148672168 0.999999160830695 56.2834808534358 
62.62                          0.999999151230862 56.199652878347  0.00175479658739035 146.185246030018 0.00175479658738339 146.185246029941 0.999999150365814 56.1715627603907 
62.64                          0.999999139877333 56.0877515381819 0.00176872149371924 146.073317443338 0.00176872149371206 146.073317443259 0.999999138995919 56.0596183695796 
62.66                          0.99999912761783 55.975823495687  0.00178277725683261 145.961362387438 0.00178277725682541 145.961362387354 0.999999126720655 55.9476471624185 
62.68                          0.999999114451768 55.8638682297893 0.00179696533136158 145.849380334367 0.00179696533135417 145.849380334287 0.999999113539426 55.8356486170283 
62.7                           0.999999100378314 55.7518852160865 0.00181128719081765 145.737370752952 0.00181128719080986 145.737370752883 0.99999909945139 55.7236222081931 
62.72                          0.99999908539639 55.6398739268059 0.00182574432787564 145.625333108761 0.00182574432786802 145.625333108676 0.999999084455459 55.6115674073196 
62.74                          0.999999069504663 55.5278338307614 0.00184033825466183 145.513266864007 0.00184033825465394 145.513266863927 0.999999068550291 55.4994836823941 
62.76                          0.99999905270155 55.4157643933116 0.00185507050304488 145.40117147757  0.00185507050303706 145.401171477476 0.999999051734292 55.3873704979397 
62.78                          0.999999034985205 55.3036650763162 0.00186994262493367 145.289046404911 0.00186994262492559 145.289046404828 0.99999903400561 55.2752273149736 
62.8                           0.999999016353524 55.1915353380922 0.00188495619257935 145.176891098061 0.00188495619257122 145.176891097977 0.999999015362129 55.1630535909627 
62.82                          0.999998996804135 55.0793746333695 0.001900112798883 145.064705005543 0.00190011279887479 145.064705005455 0.999998995801469 55.0508487797793 
62.84                          0.999998976334397 54.9671824132463 0.00191541405770851 144.952487572323 0.00191541405770012 144.952487572239 0.99999897532098 54.938612331656  
62.86                          0.999998954941396 54.8549581251429 0.00193086160419991 144.840238239812 0.00193086160419149 144.84023823972  0.99999895391774 54.8263436931401 
62.88                          0.999998932621941 54.7427012127558 0.00194645709510625 144.727956445751 0.00194645709509761 144.72795644567  0.999998931588547 54.7140423070469 
62.9                           0.999998909372557 54.630411116011  0.00196220220910993 144.615641624221 0.00196220220910133 144.615641624133 0.999998908329919 54.6017076124135 
62.92                          0.999998885189483 54.5180872710159 0.00197809864716236 144.503293205548 0.00197809864715353 144.503293205464 0.999998884138088 54.4893390444503 
62.94                          0.999998860068671 54.4057291100122 0.0019941481328238 144.390910616305 0.00199414813281498 144.390910616216 0.999998859008994 54.3769360344937 
62.96                          0.999998834005773 54.2933360613262 0.00201035241261155 144.278493279193 0.00201035241260252 144.27849327911  0.999998832938283 54.2644980099565 
62.98                          0.999998806996144 54.1809075493198 0.00202671325635115 144.16604061307  0.00202671325634207 144.166040612989 0.999998805921301 54.1520243942788 
63                             0.999998779034832 54.0684429943402 0.00204323245753695 144.053552032834 0.00204323245752769 144.053552032758 0.999998777953087 54.0395146068777 
63.02                          0.999998750116578 53.9559418126692 0.00205991183369594 143.941026949411 0.00205991183368677 143.941026949329 0.999998749028375 53.9269680630959 
63.04                          0.999998720235805 53.8434034164716 0.00207675322676074 143.828464769679 0.00207675322675159 143.82846476959  0.99999871914158 53.814384174151  
63.06                          0.999998689386616 53.7308272137429 0.00209375850344746 143.71586489641  0.00209375850343813 143.715864896323 0.999998688286797 53.7017623470823 
63.08                          0.999998657562792 53.6182126082566 0.00211092955564003 143.60322672825  0.00211092955563068 143.60322672817  0.999998656457798 53.5891019846979 
63.1                           0.999998624757777 53.5055589995101 0.00212826830078263 143.490549659654 0.00212826830077316 143.490549659574 0.999998623648021 53.4764024855215 
63.12                          0.999998590964682 53.3928657826706 0.00214577668227848 143.377833080794 0.00214577668226904 143.377833080707 0.999998589850568 53.3636632437369 
63.14                          0.999998556176273 53.2801323485195 0.00216345666989564 143.26507637753  0.00216345666988608 143.265076377451 0.999998555058198 53.2508836491333 
63.16                          0.999998520384968 53.1673580833967 0.00218131026017956 143.152278931376 0.00218131026016995 143.152278931294 0.999998519263321 53.1380630870491 
63.18                          0.99999848358283 53.0545423691438 0.00219933947687429 143.039440119389 0.00219933947686466 143.039440119307 0.999998482457993 53.0252009383146 
63.2                           0.999998445761557 52.9416845830463 0.00221754637134975 142.926559314162 0.00221754637134 142.926559314085 0.999998444633906 52.9122965791949 
63.22                          0.999998406912483 52.8287840977752 0.00223593302303802 142.813635883724 0.00223593302302816 142.813635883648 0.999998405782384 52.7993493813307 
63.24                          0.999998367026565 52.7158402813278 0.00225450153987635 142.700669191508 0.0022545015398666 142.700669191429 0.999998365894378 52.6863587116793 
63.26                          0.999998326094376 52.6028524969678 0.00227325405875888 142.587658596282 0.00227325405874932 142.587658596195 0.999998324960454 52.5733239324545 
63.28                          0.999998284106101 52.489820103164  0.00229219274599676 142.474603452062 0.00229219274598703 142.474603451981 0.999998282970791 52.4602444010652 
63.3                           0.99999824105153 52.3767424535284 0.00231131979778479 142.361503108101 0.00231131979777499 142.361503108022 0.999998239915171 52.3471194700534 
63.32                          0.999998196920046 52.2636188967538 0.00233063744067948 142.248356908773 0.00233063744066964 142.248356908698 0.99999819578297 52.2339484870315 
63.34                          0.999998151700621 52.1504487765499 0.00235014793208299 142.135164193553 0.00235014793207324 142.13516419347  0.999998150563153 52.1207307946187 
63.36                          0.999998105381807 52.0372314315789 0.00236985356073799 142.021924296901 0.00236985356072827 142.021924296822 0.999998104244266 52.0074657303758 
63.38                          0.999998057951726 51.9239661953895 0.0023897566472304 141.908636548241 0.00238975664722038 141.908636548171 0.999998056814425 51.8941526267396 
63.4                           0.999998009398066 51.8106523963513 0.00240985954450087 141.795300271884 0.00240985954449108 141.795300271804 0.99999800826131 51.780790810957  
63.42                          0.999997959708067 51.6972893575862 0.002430164638368 141.681914786929 0.00243016463835812 141.681914786854 0.999997958572155 51.6673796050164 
63.44                          0.999997908868515 51.5838763969009 0.00245067434805798 141.568479407233 0.00245067434804812 141.568479407159 0.99999790773374 51.5539183255798 
63.46                          0.999997856865732 51.4704128267169 0.00247139112674671 141.454993441326 0.00247139112673695 141.454993441247 0.999997855732381 51.4404062839128 
63.48                          0.999997803685568 51.3568979540002 0.00249231746211053 141.341456192326 0.00249231746210082 141.341456192251 0.999997802553921 51.3268427858142 
63.5                           0.999997749313388 51.2433310801898 0.00251345587688757 141.227866957879 0.00251345587687769 141.227866957808 0.999997748183719 51.2132271315442 
63.52                          0.999997693734066 51.1297115011249 0.00253480892944887 141.1142250301   0.00253480892943899 141.114225030031 0.999997692606643 51.0995586157515 
63.54                          0.999997636931971 51.0160385069711 0.00255637921438157 141.000529695477 0.00255637921437194 141.000529695397 0.999997635807056 50.9858365273998 
63.56                          0.99999757889096 50.9023113821461 0.00257816936308228 140.886780234771 0.00257816936307216 140.886780234704 0.999997577768808 50.8720601496926 
63.58                          0.999997519594363 50.7885294052432 0.00260018204435944 140.772975923029 0.00260018204434966 140.772975922955 0.999997518475225 50.7582287599969 
63.6                           0.999997459024976 50.6746918489544 0.00262241996505192 140.659116029396 0.00262241996504232 140.659116029319 0.999997457909097 50.6443416297663 
63.62                          0.999997397165048 50.5607979799923 0.00264488587065438 140.545199817098 0.00264488587064467 140.545199817027 0.999997396052665 50.5303980244625 
63.64                          0.999997333996266 50.4468470590105 0.00266758254595623 140.431226543366 0.00266758254594653 140.431226543294 0.999997332887613 50.4163972034755 
63.66                          0.999997269499748 50.332838340523  0.00269051281569344 140.317195459321 0.00269051281568379 140.317195459255 0.999997268395053 50.3023384200432 
63.68                          0.999997203656029 50.218771072822  0.00271367954521217 140.203105809922 0.0027136795452025 140.203105809853 0.999997202555512 50.1882209211687 
63.7                           0.999997136445045 50.1046444978953 0.00273708564114389 140.088956833859 0.00273708564113424 140.088956833792 0.999997135348923 50.0740439475375 
63.72                          0.999997067846123 49.9904578513415 0.00276073405209489 139.974747763484 0.00276073405208511 139.974747763425 0.999997066754608 49.9598067334329 
63.74                          0.999996997837967 49.8762103622843 0.00278462776934855 139.860477824719 0.00278462776933888 139.860477824652 0.999996996751264 49.8455085066494 
63.76                          0.999996926398644 49.7619012532854 0.0028087698275802 139.746146236957 0.00280876982757047 139.746146236896 0.999996925316953 49.7311484884065 
63.78                          0.999996853505568 49.6475297402564 0.00283316330558694 139.631752212991 0.00283316330557733 139.631752212931 0.999996852429085 49.6167258932593 
63.8                           0.999996779135489 49.5330950323683 0.00285781132703015 139.517294958922 0.00285781132702065 139.51729495886  0.999996778064403 49.5022399290087 
63.82                          0.999996703264472 49.4185963319611 0.0028827170611937 139.402773674041 0.00288271706118409 139.402773673984 0.999996702198969 49.3876897966102 
63.84                          0.999996625867888 49.3040328344507 0.00290788372375547 139.288187550774 0.00290788372374606 139.288187550714 0.999996624808147 49.2730746900809 
63.86                          0.999996546920393 49.1894037282347 0.002933314577575 139.173535774559 0.0029333145775655 139.173535774502 0.999996545866588 49.1583937964051 
63.88                          0.999996466395913 49.0747081945972 0.00295901293349511 139.058817523762 0.00295901293348581 139.058817523702 0.999996465348216 49.0436462954387 
63.9                           0.999996384267628 48.9599454076112 0.0029849821511608 138.944031969572 0.00298498215115165 138.944031969511 0.999996383226205 48.928831359812  
63.92                          0.999996300507955 48.8451145340406 0.00301122563985282 138.8291782759   0.00301122563984354 138.829178275845 0.999996299472964 48.8139481548306 
63.94                          0.999996215088527 48.7302147332394 0.00303774685933672 138.714255599304 0.00303774685932761 138.71425559925  0.999996214060126 48.6989958383749 
63.96                          0.999996127980177 48.6152451570498 0.00306454932073194 138.599263088843 0.00306454932072276 138.599263088792 0.999996126958516 48.5839735607983 
63.98                          0.99999603915292 48.5002049496996 0.00309163658739369 138.484199886015 0.00309163658738478 138.484199885959 0.999996038138146 48.4688804648236 
64                             0.999995948575929 48.385093247696  0.00311901227581539 138.369065124614 0.00311901227580663 138.369065124558 0.999995947568185 48.3537156854373 
64.02                          0.999995856217521 48.2699091797194 0.00314668005654824 138.253857930642 0.00314668005653919 138.253857930591 0.999995855216944 48.2384783497826 
64.04                          0.999995762045131 48.1546518665144 0.00317464365513591 138.138577422225 0.00317464365512698 138.138577422177 0.999995761051854 48.1231675770508 
64.06                          0.999995666025295 48.0393204207803 0.00320290685307456 138.023222709436 0.00320290685306572 138.023222709384 0.999995665039447 48.0077824783711 
64.08                          0.999995568123623 47.9239139470576 0.00323147348878412 137.907792894245 0.00323147348877542 137.907792894192 0.999995567145329 47.8923221566971 
64.1                           0.999995468304783 47.8084315416157 0.00326034745860458 137.792287070371 0.00326034745859598 137.792287070321 0.999995467334163 47.7767857066938 
64.12                          0.999995366532472 47.6928722923352 0.00328953271780994 137.676704323184 0.00328953271780144 137.676704323133 0.999995365569643 47.6611722146205 
64.14                          0.999995262769396 47.577235278592  0.00331903328164234 137.561043729568 0.00331903328163365 137.561043729526 0.99999526181447 47.5454807582139 
64.16                          0.999995156977243 47.461519571136  0.00334885322636818 137.445304357817 0.00334885322635972 137.445304357774 0.999995156030328 47.4297104065671 
64.18                          0.99999504911666 47.3457242319704 0.00337899669035427 137.329485267504 0.00337899669034604 137.329485267454 0.999995048177861 47.3138602200081 
64.2                           0.999994939147225 47.2298483142278 0.00340946787516712 137.21358550934  0.00340946787515875 137.213585509296 0.999994938216641 47.1979292499759 
64.22                          0.999994827027423 47.1138908620439 0.00344027104669172 137.097604125101 0.00344027104668341 137.09760412506  0.999994826105151 47.0819165388944 
64.24                          0.999994712714613 46.9978509104303 0.00347141053627746 136.981540147433 0.00347141053626937 136.981540147392 0.999994711800745 46.9658211200442 
64.26                          0.999994596165007 46.8817274851439 0.00350289074190322 136.865392599773 0.00350289074189505 136.865392599734 0.999994595259632 46.8496420174319 
64.28                          0.999994477333635 46.7655196025551 0.00353471612936842 136.749160496182 0.0035347161293602 136.749160496147 0.999994476436838 46.7333782456585 
64.3                           0.999994356174319 46.6492262695129 0.00356689123350828 136.632842841229 0.00356689123350022 136.632842841192 0.999994355286182 46.6170288097836 
64.32                          0.99999423263964 46.5328464832084 0.00359942065943334 136.516438629848 0.00359942065942564 136.516438629806 0.99999423176024 46.5005927051891 
64.34                          0.999994106680905 46.4163792310356 0.00363230908379527 136.39994684719  0.00363230908378734 136.399946847154 0.999994105810316 46.3840689174394 
64.36                          0.999993978248117 46.2998234904499 0.00366556125607749 136.283366468507 0.0036655612560697 136.283366468473 0.99999397738641 46.2674564221396 
64.38                          0.999993847289941 46.1831782288242 0.00369918199991472 136.166696458977 0.00369918199990723 136.16669645894  0.999993846437183 46.1507541847918 
64.4                           0.999993713753668 46.0664424033023 0.00373317621443834 136.049935773562 0.00373317621443086 136.049935773528 0.999993712909922 46.0339611606474 
64.42                          0.999993577585179 45.9496149606508 0.00376754887564905 135.933083356883 0.00376754887564162 135.933083356851 0.999993576750506 45.9170762945593 
64.44                          0.999993438728909 45.8326948371063 0.00380230503782006 135.816138143042 0.00380230503781268 135.816138143011 0.999993437903366 45.8000985208285 
64.46                          0.99999329712781 45.7156809582223 0.00383744983492845 135.699099055478 0.00383744983492109 135.699099055446 0.999993296311451 45.6830267630508 
64.48                          0.999993152723311 45.5985722387116 0.00387298848211696 135.581965006801 0.00387298848210991 135.581965006767 0.999993151916186 45.565859933959  
64.5                           0.999993005455278 45.4813675822879 0.00390892627718662 135.464734898641 0.00390892627717952 135.464734898613 0.999993004657434 45.4485969352636 
64.52                          0.999992855261971 45.3640658815017 0.00394526860211945 135.347407621495 0.00394526860211269 135.34740762146  0.999992854473453 45.3312366574892 
64.54                          0.999992702080005 45.2466660175764 0.00398202092463612 135.229982054531 0.00398202092462939 135.229982054499 0.999992701300854 45.2137779798095 
64.56                          0.999992545844302 45.1291668602398 0.00401918879978406 135.112457065443 0.00401918879977719 135.112457065415 0.999992545074556 45.0962197698788 
64.58                          0.99999238648805 45.0115672675524 0.00405677787156091 134.994831510274 0.00405677787155421 134.994831510245 0.999992385727744 44.9785608836601 
64.6                           0.999992223942651 44.8938660857341 0.00409479387457114 134.877104233247 0.00409479387456462 134.877104233214 0.999992223191817 44.8608001652511 
64.62                          0.999992058137679 44.7760621489856 0.00413324263572059 134.759274066558 0.00413324263571407 134.75927406653  0.999992057396346 44.7429364467054 
64.64                          0.999991889000825 44.6581542793094 0.00417213007594393 134.641339830242 0.00417213007593767 134.641339830213 0.99999188826902 44.624968547853  
64.66                          0.99999171645785 44.5401412863249 0.00421146221197284 134.523300331943 0.00421146221196634 134.52330033192  0.999991715735597 44.5068952761152 
64.68                          0.999991540432531 44.4220219670813 0.00425124515813848 134.40515436677  0.00425124515813212 134.405154366747 0.99999153971985 44.3887154263171 
64.7                           0.999991360846606 44.303795105868  0.00429148512821734 134.286900717059 0.0042914851282112 134.286900717034 0.999991360143515 44.2704277804973 
64.72                          0.999991177619719 44.1854594740198 0.00433218843731334 134.168538152215 0.00433218843730726 134.168538152191 0.999991176926234 44.152031107713  
64.74                          0.999990990669361 44.0670138297196 0.00437336150378289 134.050065428495 0.00437336150377697 134.050065428472 0.999990989985495 44.0335241638422 
64.76                          0.999990799910815 43.9484569177973 0.00441501085120104 133.931481288821 0.00441501085119517 133.931481288798 0.999990799236577 43.9149056913823 
64.78                          0.999990605257088 43.8297874695254 0.00445714311037117 133.812784462557 0.00445714311036541 133.812784462533 0.999990604592487 43.7961744192448 
64.8                           0.999990406618855 43.7110042024095 0.00449976502137929 133.693973665309 0.00449976502137336 133.693973665292 0.999990405963895 43.677329062546  
64.82                          0.999990203904388 43.5921058199767 0.00454288343569083 133.575047598724 0.00454288343568519 133.575047598703 0.999990203259073 43.5583683223946 
64.84                          0.999989997019493 43.4730910115584 0.00458650531829861 133.456004950243 0.00458650531829341 133.456004950218 0.999989996383822 43.4392908856739 
64.86                          0.999989785867438 43.3539584520705 0.00463063774991317 133.336844392904 0.00463063774990808 133.336844392881 0.99998978524141 43.3200954248219 
64.88                          0.999989570348885 43.2347068017884 0.00467528792920482 133.217564585113 0.00467528792919944 133.217564585097 0.999989569732494 43.2007805976057 
64.9                           0.999989350361812 43.115334706118  0.00472046317509384 133.098164170421 0.0047204631750888 133.0981641704   0.999989349755051 43.0813450468918 
64.92                          0.99998912580144 42.9958407953633 0.0047661709290952 132.978641777252 0.00476617092909006 132.978641777237 0.999989125204301 42.9617874004137 
64.94                          0.999988896560155 42.8762236844881 0.0048124187577097 132.858996018731 0.00481241875770486 132.858996018714 0.999988895972627 42.8421062705322 
64.96                          0.999988662527426 42.756481972874  0.00485921435487599 132.739225492374 0.00485921435487106 132.739225492357 0.999988661949495 42.722300253994  
64.98                          0.999988423589721 42.636614244074  0.0049065655444713 132.619328779887 0.00490656554446656 132.619328779871 0.999988423021372 42.602367931684  
65                             0.999988179630424 42.5166190655611 0.00495448028287337 132.499304446895 0.00495448028286882 132.499304446879 0.999988179071639 42.4823078683738 
65.02                          0.999987930529743 42.3964949884717 0.00500296666157842 132.379151042683 0.00500296666157406 132.379151042665 0.999987929980502 42.3621186124641 
65.04                          0.999987676164619 42.2762405473444 0.00505203290987814 132.258867099944 0.00505203290987375 132.258867099927 0.9999876756249  42.2417986957234 
65.06                          0.999987416408634 42.1558542598543 0.00510168739759866 132.138451134506 0.00510168739759424 132.138451134491 0.999987415878413 42.1213466330216 
65.08                          0.999987151131909 42.0353346265409 0.00515193863790205 132.017901645063 0.00515193863789794 132.01790164505  0.999987150611161 42.000760922057  
65.1                           0.999986880201009 41.9146801305317 0.00520279529015223 131.897217112896 0.00520279529014809 131.897217112883 0.999986879689705 41.88004004308   
65.12                          0.999986603478835 41.7938892372598 0.00525426616284578 131.776396001587 0.00525426616284193 131.776396001574 0.999986602976945 41.7591824586093 
65.14                          0.999986320824515 41.6729603941768 0.00530636021661138 131.655436756739 0.00530636021660765 131.655436756723 0.999986320332009 41.6381866131449 
65.16                          0.999986032093299 41.5518920304587 0.00535908656727854 131.534337805666 0.00535908656727473 131.534337805654 0.999986031610144 41.5170509328728 
65.18                          0.999985737136441 41.4306825567068 0.0054124544890168 131.413097557121 0.00541245448901307 131.413097557109 0.9999857366626  41.3957738253659 
65.2                           0.99998543580108 41.3093303646434 0.0054664734175491 131.291714400961 0.00546647341754543 131.29171440095  0.999985435336517 41.274353679278  
65.22                          0.99998512793012 41.1878338267993 0.00552115295343987 131.170186707847 0.00552115295343608 131.17018670784  0.999985127474798 41.1527888640321 
65.24                          0.999984813362104 41.0661912961974 0.0055765028654588 131.048512828941 0.00557650286545564 131.048512828928 0.99998481291598 41.031077729502  
65.26                          0.999984491931081 40.944401106028  0.00563253309402746 130.926691095545 0.00563253309402413 130.926691095535 0.999984491494115 40.9092186056878 
65.28                          0.999984163466477 40.8224615693195 0.00568925375474105 130.804719818812 0.00568925375473762 130.804719818804 0.999984163038624 40.787209802385  
65.3                           0.999983827792948 40.7003709785999 0.00574667514198 130.682597289376 0.00574667514197681 130.682597289366 0.999983827374164 40.6650496088467 
65.32                          0.999983484730245 40.5781276055544 0.00580480773260287 130.560321777023 0.00580480773259991 130.560321777014 0.999983484320483 40.5427362934387 